96
Lattice="10.42000008 0.0 0.0 0.0 10.52000046 0.0 1.7670649 0.0 10.59363378" Properties=species:S:1:pos:R:3:forces:R:3 energy=-926.39649275 config_type=Zr300 stress="0.03166656650792143 -8.858636317457368e-07 0.05147418609118179 -8.858636317457368e-07 0.05576076465614096 -1.1002095381468196e-06 0.05147418609118179 -1.1002095381468196e-06 0.061334761688715815" virial="-36.773029776612525 0.0010287155603072786 -59.774771520758996 0.0010287155603072786 -64.75259193490466 0.0012776262970178812 -59.774771520758996 0.0012776262970178812 -71.22543637171314" pbc="T T T"
Zr       0.00000000       0.00000000       0.00000000       0.00002370       0.00001629       0.00003174
Zr       0.44176623       2.63000012       2.64840844      -0.00002927       0.00000344      -0.00004975
Zr       0.88353245       0.00000000       5.29681689      -0.00001306       0.00001037      -0.00001975
Zr       1.32529867       2.63000012       7.94522533      -0.00001231       0.00003341      -0.00003000
Zr       0.00000000       5.26000023       0.00000000      -0.00000396       0.00000455       0.00002241
Zr       0.44176623       7.89000035       2.64840844      -0.00002414      -0.00000708      -0.00000055
Zr       0.88353245       5.26000023       5.29681689       0.00001627      -0.00000008       0.00001630
Zr       1.32529867       7.89000035       7.94522533      -0.00000377      -0.00002941       0.00001480
Zr       5.21000004       0.00000000       0.00000000       0.00003505       0.00005163       0.00002316
Zr       5.65176627       2.63000012       2.64840844      -0.00001510       0.00000845      -0.00004429
Zr       6.09353249       0.00000000       5.29681689      -0.00002031      -0.00002785      -0.00000693
Zr       6.53529871       2.63000012       7.94522533       0.00007364      -0.00006225       0.00005696
Zr       5.21000004       5.26000023       0.00000000       0.00003114      -0.00001926       0.00003456
Zr       5.65176627       7.89000035       2.64840844       0.00001760       0.00000133       0.00002736
Zr       6.09353249       5.26000023       5.29681689       0.00002641       0.00004397       0.00001374
Zr       6.53529871       7.89000035       7.94522533      -0.00002429       0.00002565      -0.00003977
Zr       2.60500002       2.63000012       0.00000000      -0.00005068       0.00003019       0.00002803
Zr       7.81500006       7.89000035       0.00000000       0.00003661      -0.00004237      -0.00003629
Zr       8.25676628       5.26000023       2.64840844      -0.00002726      -0.00004014       0.00001371
Zr       3.04676624       0.00000000       2.64840844       0.00001699       0.00001443       0.00000313
Zr       3.48853247       2.63000012       5.29681689      -0.00002067       0.00001118       0.00001301
Zr       8.69853251       7.89000035       5.29681689       0.00003424      -0.00003434      -0.00001335
Zr       9.14029874       5.26000023       7.94522533       0.00000199       0.00000879      -0.00000598
Zr       3.93029869       0.00000000       7.94522533       0.00001954       0.00000780      -0.00003522
Zr       2.60500002       7.89000035       0.00000000      -0.00004219       0.00006126       0.00001741
Zr       7.81500006       2.63000012       0.00000000      -0.00000759       0.00003989       0.00001698
Zr       8.25676628       0.00000000       2.64840844       0.00001098       0.00000015       0.00001452
Zr       3.04676624       5.26000023       2.64840844      -0.00001191      -0.00003510       0.00002202
Zr       3.48853247       7.89000035       5.29681689       0.00002457      -0.00006349      -0.00003150
Zr       8.69853251       2.63000012       5.29681689      -0.00002241       0.00000756       0.00002146
Zr       9.14029874       0.00000000       7.94522533      -0.00001002       0.00002938       0.00002564
Zr       3.93029869       5.26000023       7.94522533      -0.00000650      -0.00002591       0.00000306
O        1.22754182       1.15720005       1.11233155       1.78057491       2.07260067       0.73000677
O       10.95952316       9.36280041       9.48130223      -1.78059397      -2.07255448      -0.73003678
O        9.63422448       3.78720017       1.53607690      -1.78221006       2.07157138      -0.73046360
O        1.66930805       1.47280006       3.76073999       1.78221904      -2.07157655       0.73049505
O        2.11107427       1.15720005       6.40914844       1.78062435       2.07249921       0.73005325
O       10.07599071       9.36280041       4.18448534      -1.78058543      -2.07258494      -0.73001404
O       10.51775693       3.78720017       6.83289379      -1.78224558       2.07157723      -0.73050316
O        2.55284050       1.47280006       9.05755688       1.78224307      -2.07159700       0.73049811
O        1.22754182       6.41720028       1.11233155       1.78062764       2.07257111       0.73002619
O       10.95952316       4.10280018       9.48130223      -1.78065011      -2.07256994      -0.73002499
O        9.63422448       9.04720040       1.53607690      -1.78225685       2.07156708      -0.73050334
O        1.66930805       6.73280029       3.76073999       1.78224461      -2.07154277       0.73050354
O        2.11107427       6.41720028       6.40914844       1.78061314       2.07260358       0.73000929
O       10.07599071       4.10280018       4.18448534      -1.78061918      -2.07258211      -0.73002945
O       10.51775693       9.04720040       6.83289379      -1.78223207       2.07158975      -0.73051859
O        2.55284050       6.73280029       9.05755688       1.78224742      -2.07155162       0.73053121
O        6.43754186       1.15720005       1.11233155       1.78060983       2.07254024       0.73004177
O        5.74952312       9.36280041       9.48130223      -1.78061635      -2.07252793      -0.73000621
O        4.42422444       3.78720017       1.53607690      -1.78222203       2.07158554      -0.73044486
O        6.87930809       1.47280006       3.76073999       1.78219320      -2.07159973       0.73051276
O        7.32107431       1.15720005       6.40914844       1.78059220       2.07255566       0.72997044
O        4.86599067       9.36280041       4.18448534      -1.78060803      -2.07256078      -0.73002603
O        5.30775689       3.78720017       6.83289379      -1.78219720       2.07156981      -0.73053171
O        7.76284054       1.47280006       9.05755688       1.78217285      -2.07159118       0.73048938
O        6.43754186       6.41720028       1.11233155       1.78057775       2.07262438       0.73005042
O        5.74952312       4.10280018       9.48130223      -1.78062069      -2.07252594      -0.73007578
O        4.42422444       9.04720040       1.53607690      -1.78218206       2.07154235      -0.73052811
O        6.87930809       6.73280029       3.76073999       1.78225013      -2.07158470       0.73045309
O        7.32107431       6.41720028       6.40914844       1.78062735       2.07255742       0.73003344
O        4.86599067       4.10280018       4.18448534      -1.78063253      -2.07259882      -0.73003214
O        5.30775689       9.04720040       6.83289379      -1.78220021       2.07158772      -0.73046832
O        7.76284054       6.73280029       9.05755688       1.78216635      -2.07157841       0.73051012
O        1.68602183       3.94500017       1.11233155      -0.53263867       0.73838461       1.69878126
O       10.50104315       6.57500029       9.48130223       0.53268382      -0.73839401      -1.69875222
O        9.17574448       6.57500029       1.53607690       0.53112347       0.73828956      -1.70136866
O        2.12778805       9.20500040       3.76073999      -0.53117056      -0.73835831       1.70141988
O        2.56955428       3.94500017       6.40914844      -0.53264197       0.73836068       1.69876839
O        9.61751070       6.57500029       4.18448534       0.53265214      -0.73836436      -1.69877125
O       10.05927693       6.57500029       6.83289379       0.53116532       0.73835757      -1.70140594
O        3.01132050       9.20500040       9.05755688      -0.53117512      -0.73834635       1.70136426
O        1.68602183       9.20500040       1.11233155      -0.53265745       0.73833680       1.69878405
O       10.50104315       1.31500006       9.48130223       0.53270785      -0.73835962      -1.69875029
O        9.17574448       1.31500006       1.53607690       0.53113249       0.73829644      -1.70138902
O        2.12778805       3.94500017       3.76073999      -0.53115382      -0.73828966       1.70136684
O        2.56955428       9.20500040       6.40914844      -0.53272867       0.73843161       1.69877891
O        9.61751070       1.31500006       4.18448534       0.53266636      -0.73836304      -1.69880014
O       10.05927693       1.31500006       6.83289379       0.53116317       0.73827798      -1.70136257
O        3.01132050       3.94500017       9.05755688      -0.53115669      -0.73831167       1.70139351
O        6.89602187       3.94500017       1.11233155      -0.53260761       0.73833656       1.69874612
O        5.29104311       6.57500029       9.48130223       0.53269193      -0.73844988      -1.69878701
O        3.96574444       6.57500029       1.53607690       0.53118165       0.73836665      -1.70141489
O        7.33778809       9.20500040       3.76073999      -0.53112763      -0.73827816       1.70136876
O        7.77955432       3.94500017       6.40914844      -0.53270750       0.73840311       1.69880820
O        4.40751066       6.57500029       4.18448534       0.53261620      -0.73839803      -1.69879978
O        4.84927689       6.57500029       6.83289379       0.53117310       0.73826966      -1.70134348
O        8.22132054       9.20500040       9.05755688      -0.53115835      -0.73830501       1.70138401
O        6.89602187       9.20500040       1.11233155      -0.53267016       0.73836925       1.69878578
O        5.29104311       1.31500006       9.48130223       0.53260284      -0.73843705      -1.69877036
O        3.96574444       1.31500006       1.53607690       0.53115542       0.73827855      -1.70138364
O        7.33778809       3.94500017       3.76073999      -0.53116759      -0.73825234       1.70137753
O        7.77955432       9.20500040       6.40914844      -0.53259699       0.73836956       1.69876006
O        4.40751066       1.31500006       4.18448534       0.53268342      -0.73833236      -1.69879721
O        4.84927689       1.31500006       6.83289379       0.53115763       0.73834242      -1.70138091
O        8.22132054       3.94500017       9.05755688      -0.53116886      -0.73827954       1.70137543
96
Lattice="10.41908295 -0.00075639 -0.00190362 0.00047767 10.52175592 0.00286365 1.7670609 0.0 10.5936098" Properties=species:S:1:pos:R:3:forces:R:3 energy=-926.63348678 config_type=Zr300 stress="0.03258437966965995 6.522792721055789e-05 0.05141239995055606 6.522792721055789e-05 0.0574695549820371 -5.0379770215156546e-05 0.05141239995055606 -5.0379770215156546e-05 0.06264229094161053" virial="-37.84289769827701 -0.07575451187116498 -59.709413267222075 -0.07575451187116498 -66.74408142794121 0.05851013613403458 -59.709413267222075 0.05851013613403458 -72.75160158707453" pbc="T T T"
Zr      12.18422670       0.00136094      10.59167819      -0.03150464      -0.00665699      -0.08490839
Zr      10.86109262       2.62670010       2.64880882      -0.12959946       0.09555596      -0.09888497
Zr      11.29920448       0.00067542       5.29277747      -0.00805174       0.03781606       0.12386713
Zr       1.32740528       2.62981529       7.94404792       0.01622775      -0.04443266       0.07738651
Zr      10.41684370       5.26159566       0.00097778      -0.14465420      -0.08222571      -0.08470259
Zr       0.44260281       7.88837103       2.65142743      -0.02218854       0.01215624      -0.02044562
Zr       0.88501057       5.26123647       5.29939123      -0.05374211       0.00695914      -0.00734656
Zr       1.32647414       7.89141210       7.94723578      -0.00591578       0.04775998       0.01031724
Zr       6.97749715       0.00240009      10.59082001       0.00658056       0.04151557       0.01880204
Zr       5.65110986       2.63087615       2.64876041       0.10438900      -0.05592424      -0.03238202
Zr       6.09475117      10.52002781       5.29965817       0.07221256       0.02249120       0.01213490
Zr       6.53308405       2.63459065       7.94558832       0.14290346      -0.17762922       0.10749763
Zr       6.97579475       5.26047131      10.59270971       0.09444775       0.06553473       0.09187198
Zr       5.65410598       7.89037335       2.65015788       0.00153783       0.02529746      -0.04428514
Zr       6.09307382       5.25984112       5.29700690       0.01007325       0.03623825      -0.03704382
Zr       6.53561147       7.89201926       7.94317775      -0.02086053       0.02701062       0.07620302
Zr       2.60540241       2.63191598       0.00138398      -0.00250190      -0.09850755      -0.05984855
Zr       9.58114069       7.89145223      10.59424675       0.00720120       0.01877070       0.00879156
Zr       8.25415619       5.26350842       2.65114604       0.04658936       0.04799014      -0.05212304
Zr       3.04552789       0.00206791       2.64938263       0.07994068       0.00857910      -0.07913321
Zr       3.48860153       2.62880606       5.29563411      -0.02656656      -0.03865029       0.04825948
Zr       8.69679435       7.88987780       5.29671006      -0.02578612      -0.02056716      -0.04080642
Zr       9.13641119       5.25841415       7.94417803       0.06126896      -0.00168554       0.03526332
Zr       3.93087045      10.52116718       7.94749598      -0.08968896      -0.04205049       0.08826768
Zr       4.37202018       7.89084303      10.59501006       0.02951715       0.00343049      -0.00487680
Zr       7.81917296       2.62718052       0.00031749       0.00887988       0.04407631       0.01289604
Zr       8.25773076      10.52058122       2.64943194      -0.05585909      -0.05263717       0.02397036
Zr       3.04589077       5.25844508       2.65141569       0.09509073       0.12995552      -0.14192330
Zr       3.48833375       7.89190573       5.29766858      -0.02772498       0.01074090       0.00929776
Zr       8.69731743       2.62883945       5.29674775       0.04538547      -0.07448426      -0.02306299
Zr       9.13779370      10.51901321       7.94670509       0.01455745       0.06404820      -0.01938558
Zr       3.93198260       5.25877019       7.94509097      -0.08824063      -0.01235262       0.07754898
O        1.22782725       1.15522913       1.11277308       1.80363796       2.09035383       0.82770536
O       10.95654599       9.36786950       9.47832567      -1.78775573      -2.11626426      -0.71968583
O        9.63088764       3.78854918       1.52630797      -1.68196587       1.97144648      -0.62281827
O        1.66869532       1.47940000       3.77193106       1.81109740      -2.06248521       0.68892846
O        2.11295470       1.15928231       6.41759109       1.76456943       1.96665465       0.63398263
O       10.07822361       9.35785175       4.17893874      -1.75566499      -2.00827828      -0.67810228
O       10.51801640       3.78682245       6.83616972      -1.80266244       2.07805148      -0.78708590
O        2.55345048       1.46707265       9.06230780       1.80799817      -2.01557870       0.70768844
O        1.23158250       6.40845747       1.11023698       1.78241678       2.14601515       0.81720992
O       10.94842506       4.09646756       9.48067721      -1.65896059      -1.97503442      -0.70620853
O        9.63247845       9.05532232       1.54057665      -1.71635381       1.97277209      -0.70258385
O        1.66663233       6.72942104       3.77279337       1.80642971      -2.00149802       0.63886263
O        2.11276416       6.41581011       6.41342737       1.79137133       2.05534892       0.71708616
O       10.07149728       4.10435624       4.17926553      -1.73969713      -2.07881929      -0.68951115
O       10.51900147       9.05144746       6.82805877      -1.78913965       2.00330219      -0.70850759
O        2.55082158       6.73059107       9.05730262       1.80582285      -2.05601185       0.71412940
O        6.43995464       1.16040253       1.11004179       1.74421431       2.00439282       0.74739291
O        5.75123649       9.36181012       9.48270262      -1.79057398      -2.06006393      -0.73536819
O        4.42767499       3.78617356       1.54327060      -1.87627312       2.16199534      -0.79496077
O        6.87702803       1.46567542       3.75885289       1.79397214      -2.06769164       0.78394425
O        7.32430846       1.15671384       6.41348687       1.73427255       2.09832545       0.69552643
O        4.86932112       9.36751680       4.18662340      -1.83071828      -2.05508253      -0.71002656
O        5.31243938       3.78261439       6.83241839      -1.83112594       2.13284547      -0.73545584
O        7.76853467       1.47061434       9.06052093       1.72638814      -2.05330640       0.65732183
O        6.44575473       6.42332310       1.12030118       1.61986920       1.92864933       0.61228833
O        5.74195348       4.10529949       9.48468870      -1.70514314      -2.02916171      -0.71118383
O        4.42260272       9.04648601       1.54199321      -1.77767163       2.09960305      -0.70265961
O        6.88826976       6.73266219       3.76395209       1.75669218      -2.08352529       0.73933096
O        7.31861020       6.42181968       6.40753654       1.79792446       2.06101192       0.72685092
O        4.86805059       4.10149319       4.18928195      -1.81528852      -2.05376691      -0.71625213
O        5.30397878       9.04443961       6.83244370      -1.74267538       2.07282560      -0.73991198
O        7.76430694       6.73075544       9.05042876       1.76022063      -2.12675382       0.78475422
O        1.68563830       3.94523329       1.11241887      -0.49376499       0.68364086       1.71894151
O       10.50155269       6.57432296       9.48492968       0.51250019      -0.73139494      -1.73099661
O        9.17299440       6.57492646       1.52654296       0.56761752       0.72716608      -1.61796442
O        2.12915313       9.20061807       3.76458342      -0.46550447      -0.64214403       1.61376139
O        2.57161534       3.94157082       6.41092911      -0.52380080       0.77174637       1.67516005
O        9.62370378       6.57317353       4.18399995       0.44323099      -0.63174148      -1.65425203
O       10.05999919       6.57225817       6.82883723       0.49236832       0.71916509      -1.65086358
O        3.00660297       9.20642926       9.06137300      -0.48617735      -0.73462444       1.65556614
O        1.69019756       9.20488144       1.11167453      -0.59527987       0.76951028       1.77916374
O       10.50729863       1.31252556       9.48001534       0.49531314      -0.71509894      -1.68079780
O        9.17277817       1.31267499       1.53334458       0.56164930       0.77588378      -1.69020912
O        2.12591526       3.95320939       3.75896760      -0.58432448      -0.86263978       1.78143517
O        2.56700103       9.20445019       6.41418802      -0.47312662       0.70362457       1.64666552
O        9.61919801       1.31456822       4.17949866       0.50656740      -0.73683333      -1.67604974
O       10.06373214       1.31361527       6.82703196       0.45153678       0.66135261      -1.65011805
O        3.01018677       3.94237943       9.05860923      -0.52396540      -0.70498197       1.65248248
O        6.89290662       3.93961651       1.11421327      -0.53534638       0.78168372       1.64779264
O        5.29106771       6.57908719       9.48313977       0.59197745      -0.80972301      -1.75644427
O        3.96447016       6.57855381       1.53588502       0.53304504       0.65896688      -1.68377347
O        7.33596545       9.20038894       3.76186137      -0.47411289      -0.69570620       1.68384801
O        7.77865349       3.94130306       6.40805489      -0.53045004       0.81797341       1.70106070
O        4.41386387       6.57741038       4.18419137       0.51634160      -0.70929675      -1.65342958
O        4.84803558       6.57635783       6.83493841       0.54226876       0.69347772      -1.70594674
O        8.22002461       9.20118587       9.06260987      -0.47313929      -0.68709911       1.61463619
O        6.89248792       9.20663288       1.11323168      -0.49772799       0.73182546       1.69782162
O        5.29658770       1.31305378       9.48119401       0.48481939      -0.65428457      -1.67260867
O        3.96828199       1.31726913       1.52867844       0.42771219       0.61785261      -1.60532726
O        7.33613010       3.94211269       3.75410401      -0.54328608      -0.76186478       1.73023668
O        7.78432483       9.21765068       6.41188183      -0.49685303       0.60373785       1.62143415
O        4.40398950       1.32141826       4.17394838       0.51774179      -0.77444512      -1.68806873
O        4.84965439       1.31266539       6.83417914       0.55047726       0.76121247      -1.76880441
O        8.22274606       3.93931179       9.05941292      -0.60623543      -0.65814650       1.64022873
96
Lattice="10.41771688 -0.00138253 -0.00554935 0.00092842 10.5224325 0.00556595 1.76684706 0.0 10.59232778" Properties=species:S:1:pos:R:3:forces:R:3 energy=-927.08044128 config_type=Zr300 stress="0.033810259616041456 0.00012262392763033884 0.051324709824401404 0.00012262392763033884 0.05947024859994762 -0.00011367223665332367 0.051324709824401404 -0.00011367223665332367 0.0641763523728482" virial="-39.26152850230655 -0.14239473119689106 -59.599854615942675 -0.14239473119689106 -69.05870842051439 0.13199974830030392 -59.599854615942675 0.13199974830030392 -74.52358297376638" pbc="T T T"
Zr      12.18050210       0.00281014      10.58671957      -0.05822051      -0.01104033      -0.16690160
Zr      10.86000662       2.62300434       2.64709128      -0.25244376       0.18967218      -0.19861867
Zr      11.29422734       0.00155321       5.28633734      -0.01935861       0.06867580       0.23982598
Zr       1.32953412       2.62938247       7.94188529       0.02629731      -0.08385796       0.15609360
Zr      10.41329101       5.26256774       0.00019182      -0.28580407      -0.15774434      -0.16216902
Zr       0.44316129       7.88588609       2.65410425      -0.04563937       0.02649983      -0.04206381
Zr       0.88633294       5.26195560       5.30125507      -0.10715619       0.01626343      -0.00905250
Zr       1.32766201       7.89205983       7.94806457      -0.01285763       0.09671241       0.01865721
Zr       6.97746130       0.00477504      10.58589763       0.01814622       0.08417616       0.03929601
Zr       5.65015154       2.63161413       2.64782416       0.20816795      -0.11079581      -0.06739671
Zr       6.09552662      10.51915666       5.30077937       0.14283779       0.04381294       0.02244351
Zr       6.53056093       2.63880041       7.94406411       0.27746611      -0.34668916       0.21007832
Zr       6.97392203       5.26051933      10.58960993       0.18312576       0.12270511       0.17814216
Zr       5.65624594       7.89000742       2.65069555       0.00522517       0.05091106      -0.09183987
Zr       6.09226970       5.25919563       5.29549494       0.02134782       0.07292675      -0.06809451
Zr       6.53540277       7.89334132       7.93934829      -0.03337638       0.04586501       0.15600031
Zr       2.60545767       2.63346484       0.00248912      -0.00225609      -0.19497781      -0.11908401
Zr       9.57972304       7.89210114      10.59225793       0.01187168       0.03544859       0.01975160
Zr       8.25132023       5.26638647       2.65218056       0.09455198       0.09806646      -0.11197122
Zr       3.04427600       0.00391247       2.64950814       0.16234645       0.01295693      -0.15720204
Zr       3.48830816       2.62743997       5.29340815      -0.04831258      -0.08302522       0.09195004
Zr       8.69459715       7.88918472       5.29437666      -0.04433936      -0.04497725      -0.08420742
Zr       9.13201941       5.25623799       7.94082186       0.11829468      -0.00712234       0.07201446
Zr       3.93127715      10.52127285       7.94805972      -0.17872364      -0.08625973       0.17944096
Zr       4.37146240       7.89072939      10.59442473       0.05173806       0.00992475      -0.00734267
Zr       7.82311093       2.62413769      -0.00067956       0.01113559       0.09413259       0.03392688
Zr       8.25856056      10.52015654       2.64878086      -0.11207205      -0.10131370       0.04516002
Zr       3.04480905       5.25647531       2.65357454       0.19488318       0.26260649      -0.28889663
Zr       3.48795606       7.89292214       5.29712105      -0.06040483       0.02526009       0.02315837
Zr       8.69575717       2.62760540       5.29470398       0.08641661      -0.14178055      -0.04000612
Zr       9.13484959      10.51695626       7.94575162       0.02929622       0.12011403      -0.03142132
Zr       3.93342201       5.25708489       7.94356424      -0.17113585      -0.02698258       0.15334517
O        1.22905483       1.15447755       1.11340157       1.80797537       2.09004060       0.91420928
O       10.95177389       9.37073199       9.47229863      -1.78149833      -2.14036420      -0.70448417
O        9.62597211       3.79074442       1.51384054      -1.56852639       1.85794147      -0.50436122
O        1.66894899       1.48492642       3.78289191       1.82293919      -2.03815122       0.63931620
O        2.11597298       1.16235536       6.42508871       1.73248283       1.85086438       0.53649786
O       10.07843166       9.35083188       4.17082761      -1.71357310      -1.92869710      -0.62068067
O       10.51661317       3.78793551       6.83673376      -1.80438509       2.06354521      -0.83287099
O        2.55484418       1.46029669       9.06633483       1.82003927      -1.94438250       0.67132345
O        1.23674312       6.40043987       1.10814844       1.76760726       2.20158568       0.89416906
O       10.93585881       4.08861294       9.47709760      -1.52688539      -1.86394961      -0.68371149
O        9.62941351       9.06409626       1.54242497      -1.63472112       1.85245704      -0.66764569
O        1.66514287       6.72437577       3.78472899       1.81583251      -1.91124911       0.53571628
O        2.11531129       6.41535655       6.41708505       1.78591303       2.01709759       0.69376561
O       10.06505726       4.10416648       4.17176643      -1.68062382      -2.06991880      -0.64046888
O       10.51878774       9.05635329       6.81994316      -1.78265075       1.91765395      -0.67287629
O        2.54935867       6.72659124       9.05589405       1.81797573      -2.03134560       0.69339388
O        6.44347186       1.16500964       1.10711683       1.68467631       1.91683309       0.75548709
O        5.75158537       9.35892139       9.48147577      -1.78834971      -2.03091263      -0.73003739
O        4.42996831       3.78650861       1.54879235      -1.95391711       2.22935485      -0.84391078
O        6.87565290       1.45709944       3.75597352       1.78598839      -2.04078619       0.82655971
O        7.32770080       1.15766443       6.41651386       1.67532725       2.10383031       0.65140821
O        4.87111063       9.37030714       4.18684780      -1.86220489      -2.02133197      -0.67831399
O        5.31575188       3.77899222       6.82990401      -1.87131648       2.18068454      -0.73118426
O        7.77464866       1.46735202       9.06186064       1.66115331      -2.02757162       0.58035391
O        6.45465923       6.43016951       1.12769276       1.45128886       1.77802536       0.49401519
O        5.73307804       4.10619045       9.48584008      -1.61615766      -1.96911182      -0.68831598
O        4.41950765       9.04632683       1.54684341      -1.75738899       2.10934412      -0.67027341
O        6.89746807       6.73053881       3.76543372       1.71784174      -2.07877207       0.74700049
O        7.31667218       6.42727352       6.40442173       1.79936213       2.03291865       0.71588177
O        4.86905224       4.09859496       4.19262986      -1.83655482      -2.02116598      -0.69934768
O        5.29884048       9.04203678       6.83028396      -1.68692027       2.05965418      -0.74238929
O        7.76629099       6.72672667       9.04216355       1.72062406      -2.15969500       0.82339190
O        1.68499079       3.94531707       1.11330735      -0.45601807       0.62553313       1.73116767
O       10.50154449       6.57293509       9.48516013       0.49435343      -0.72584676      -1.76263901
O        9.17002042       6.57485885       1.51428650       0.60471212       0.71018815      -1.52219317
O        2.13014025       9.19535273       3.76888926      -0.40406333      -0.54336401       1.52117216
O        2.57331735       3.93804307       6.41266119      -0.51598127       0.79970005       1.64478723
O        9.62928065       6.57013740       4.18021409       0.35335994      -0.52373013      -1.60227808
O       10.06053320       6.56909996       6.82126342       0.45149413       0.69511334      -1.59363528
O        3.00127887       9.20626959       9.06487839      -0.43381324      -0.71786741       1.59573182
O        1.69368573       9.20419446       1.11164814      -0.64811753       0.78802730       1.84579360
O       10.51312611       1.30978095       9.47469457       0.45460808      -0.68643676      -1.65174741